                               Psi4 1.3a2.dev49

  ==> Input File <==

--------------------------------------------------------------------------
import psi4
psi4.set_memory(3e9)
psi4.set_options({'geom_maxiter':100})
cnt=psi4.geometry("""
0 1
C          5.95114        4.40209        0.00000
C          5.65503        5.79189        0.00000
C          5.29997        6.40620        1.23118
C          4.24350        7.35653        1.23118
C          3.59517        7.64481        0.00000
C          2.18188        7.79266        0.00000
C          1.48792        7.64481        1.23118
C          0.25764        6.93371        1.23118
C         -0.21687        6.40620        0.00000
C         -0.79422        5.10777        0.00000
C         -0.86805        4.40209        1.23118
C         -0.57194        3.01228        1.23118
C         -0.21687        2.39798        0.00000
C          0.83959        1.44765        0.00000
C          1.48792        1.15937        1.23118
C          2.90121        1.01152        1.23118
C          3.59517        1.15937        0.00000
C          4.82545        1.87046        0.00000
C          5.29997        2.39798        1.23118
C          5.87732        3.69641        1.23118
C          5.95114        4.40209        2.46236
C          5.65503        5.79189        2.46236
C          5.29997        6.40620        3.69354
C          4.24350        7.35653        3.69354
C          3.59517        7.64481        2.46236
C          2.18188        7.79266        2.46236
C          1.48792        7.64481        3.69354
C          0.25764        6.93371        3.69354
C         -0.21687        6.40620        2.46236
C         -0.79422        5.10777        2.46236
C         -0.86805        4.40209        3.69354
C         -0.57194        3.01228        3.69354
C         -0.21687        2.39798        2.46236
C          0.83959        1.44765        2.46236
C          1.48792        1.15937        3.69354
C          2.90121        1.01152        3.69354
C          3.59517        1.15937        2.46236
C          4.82545        1.87046        2.46236
C          5.29997        2.39798        3.69354
C          5.87732        3.69641        3.69354
C          5.95114        4.40209        4.92472
C          5.65503        5.79189        4.92472
C          3.59517        7.64481        4.92472
C          2.18188        7.79266        4.92472
C         -0.21687        6.40620        4.92472
C         -0.79422        5.10777        4.92472
C         -0.21687        2.39798        4.92472
C          0.83959        1.44765        4.92472
C          3.59517        1.15937        4.92472
C          4.82545        1.87046        4.92472
H          6.21331        3.91727       -0.87250
H          5.69681        6.34147       -0.87250
H          4.13727        7.74432       -0.87250
H          1.67212        8.00222       -0.87250
H         -0.14400        6.95252       -0.87250
H         -1.15105        4.68772       -0.87250
H         -0.71393        2.63611       -0.87250
H          1.12883        0.97848       -0.87250
H          3.21510        0.76022       -0.87250
H          5.36103        2.00056       -0.87250
H          6.21331        3.91727        5.79721
H          5.69681        6.34147        5.79721
H          4.13727        7.74432        5.79721
H          1.67212        8.00222        5.79721
H         -0.14400        6.95252        5.79721
H         -1.15105        4.68772        5.79721
H         -0.71393        2.63611        5.79721
H          1.12883        0.97848        5.79721
H          3.21510        0.76022        5.79721
C          5.36103        2.00056        5.79721
H          6.25082        2.55750        5.58984
H          5.62421        1.04485        6.20003
H          4.76338        2.53421        6.50639
""")

psi4.energy('pbe/6-31G(d)',molecule=cnt)

--------------------------------------------------------------------------

    Molecular point group: c1

    Geometry (in Angstrom), charge = 0, multiplicity = 1:

       Center              X                  Y                   Z               Mass
    ------------   -----------------  -----------------  -----------------  -----------------
         C            3.346398246407     0.052862316293    -2.537500005028    12.000000000000
         C            3.050288246407     1.442662316293    -2.537500005028    12.000000000000
         C            2.695228246407     2.056972316293    -1.306320005028    12.000000000000
         C            1.638758246407     3.007302316293    -1.306320005028    12.000000000000
         C            0.990428246407     3.295582316293    -2.537500005028    12.000000000000
         C           -0.422861753593     3.443432316293    -2.537500005028    12.000000000000
         C           -1.116821753593     3.295582316293    -1.306320005028    12.000000000000
         C           -2.347101753593     2.584482316293    -1.306320005028    12.000000000000
         C           -2.821611753593     2.056972316293    -2.537500005028    12.000000000000
         C           -3.398961753593     0.758542316293    -2.537500005028    12.000000000000
         C           -3.472791753593     0.052862316293    -1.306320005028    12.000000000000
         C           -3.176681753593    -1.336947683707    -1.306320005028    12.000000000000
         C           -2.821611753593    -1.951247683707    -2.537500005028    12.000000000000
         C           -1.765151753593    -2.901577683707    -2.537500005028    12.000000000000
         C           -1.116821753593    -3.189857683707    -1.306320005028    12.000000000000
         C            0.296468246407    -3.337707683707    -1.306320005028    12.000000000000
         C            0.990428246407    -3.189857683707    -2.537500005028    12.000000000000
         C            2.220708246407    -2.478767683707    -2.537500005028    12.000000000000
         C            2.695228246407    -1.951247683707    -1.306320005028    12.000000000000
         C            3.272578246407    -0.652817683707    -1.306320005028    12.000000000000
         C            3.346398246407     0.052862316293    -0.075140005028    12.000000000000
         C            3.050288246407     1.442662316293    -0.075140005028    12.000000000000
         C            2.695228246407     2.056972316293     1.156039994972    12.000000000000
         C            1.638758246407     3.007302316293     1.156039994972    12.000000000000
         C            0.990428246407     3.295582316293    -0.075140005028    12.000000000000
         C           -0.422861753593     3.443432316293    -0.075140005028    12.000000000000
         C           -1.116821753593     3.295582316293     1.156039994972    12.000000000000
         C           -2.347101753593     2.584482316293     1.156039994972    12.000000000000
         C           -2.821611753593     2.056972316293    -0.075140005028    12.000000000000
         C           -3.398961753593     0.758542316293    -0.075140005028    12.000000000000
         C           -3.472791753593     0.052862316293     1.156039994972    12.000000000000
         C           -3.176681753593    -1.336947683707     1.156039994972    12.000000000000
         C           -2.821611753593    -1.951247683707    -0.075140005028    12.000000000000
         C           -1.765151753593    -2.901577683707    -0.075140005028    12.000000000000
         C           -1.116821753593    -3.189857683707     1.156039994972    12.000000000000
         C            0.296468246407    -3.337707683707     1.156039994972    12.000000000000
         C            0.990428246407    -3.189857683707    -0.075140005028    12.000000000000
         C            2.220708246407    -2.478767683707    -0.075140005028    12.000000000000
         C            2.695228246407    -1.951247683707     1.156039994972    12.000000000000
         C            3.272578246407    -0.652817683707     1.156039994972    12.000000000000
         C            3.346398246407     0.052862316293     2.387219994972    12.000000000000
         C            3.050288246407     1.442662316293     2.387219994972    12.000000000000
         C            0.990428246407     3.295582316293     2.387219994972    12.000000000000
         C           -0.422861753593     3.443432316293     2.387219994972    12.000000000000
         C           -2.821611753593     2.056972316293     2.387219994972    12.000000000000
         C           -3.398961753593     0.758542316293     2.387219994972    12.000000000000
         C           -2.821611753593    -1.951247683707     2.387219994972    12.000000000000
         C           -1.765151753593    -2.901577683707     2.387219994972    12.000000000000
         C            0.990428246407    -3.189857683707     2.387219994972    12.000000000000
         C            2.220708246407    -2.478767683707     2.387219994972    12.000000000000
         H            3.608568246407    -0.431957683707    -3.410000005028     1.007825032070
         H            3.092068246407     1.992242316293    -3.410000005028     1.007825032070
         H            1.532528246407     3.395092316293    -3.410000005028     1.007825032070
         H           -0.932621753593     3.652992316293    -3.410000005028     1.007825032070
         H           -2.748741753593     2.603292316293    -3.410000005028     1.007825032070
         H           -3.755791753593     0.338492316293    -3.410000005028     1.007825032070
         H           -3.318671753593    -1.713117683707    -3.410000005028     1.007825032070
         H           -1.475911753593    -3.370747683707    -3.410000005028     1.007825032070
         H            0.610358246407    -3.589007683707    -3.410000005028     1.007825032070
         H            2.756288246407    -2.348667683707    -3.410000005028     1.007825032070
         H            3.608568246407    -0.431957683707     3.259709994972     1.007825032070
         H            3.092068246407     1.992242316293     3.259709994972     1.007825032070
         H            1.532528246407     3.395092316293     3.259709994972     1.007825032070
         H           -0.932621753593     3.652992316293     3.259709994972     1.007825032070
         H           -2.748741753593     2.603292316293     3.259709994972     1.007825032070
         H           -3.755791753593     0.338492316293     3.259709994972     1.007825032070
         H           -3.318671753593    -1.713117683707     3.259709994972     1.007825032070
         H           -1.475911753593    -3.370747683707     3.259709994972     1.007825032070
         H            0.610358246407    -3.589007683707     3.259709994972     1.007825032070
         C            2.756288246407    -2.348667683707     3.259709994972    12.000000000000
         H            3.646078246407    -1.791727683707     3.052339994972     1.007825032070
         H            3.019468246407    -3.304377683707     3.662529994972     1.007825032070
         H            2.158638246407    -1.815017683707     3.968889994972     1.007825032070

  Charge       = 0
  Multiplicity = 1
  Basis Set: 6-31G(D)
    Blend: 6-31G(D)
  Basis Set: (6-31G(D) AUX)
    Blend: CC-PVDZ-JKFIT

    Orbital Energies [Eh]
    ---------------------

    Doubly Occupied:

       1A     -9.913431     2A     -9.911222     3A     -9.910260
       4A     -9.909277     5A     -9.909136     6A     -9.908993
       7A     -9.908882     8A     -9.908703     9A     -9.908639
      10A     -9.908568    11A     -9.908170    12A     -9.908086
      13A     -9.907948    14A     -9.907800    15A     -9.907655
      16A     -9.907536    17A     -9.907253    18A     -9.906956
      19A     -9.906681    20A     -9.906391    21A     -9.906170
      22A     -9.906129    23A     -9.905945    24A     -9.905869
      25A     -9.905564    26A     -9.904652    27A     -9.903717
      28A     -9.903680    29A     -9.903395    30A     -9.903031
      31A     -9.901595    32A     -9.901404    33A     -9.901234
      34A     -9.901212    35A     -9.900947    36A     -9.900851
      37A     -9.900548    38A     -9.900003    39A     -9.899983
      40A     -9.899672    41A     -9.899483    42A     -9.899401
      43A     -9.899274    44A     -9.898736    45A     -9.898406
      46A     -9.898367    47A     -9.897984    48A     -9.896480
      49A     -9.886209    50A     -9.880613    51A     -9.862706
      52A     -0.852550    53A     -0.825922    54A     -0.818220
      55A     -0.811778    56A     -0.790071    57A     -0.787128
      58A     -0.767928    59A     -0.760960    60A     -0.752212
      61A     -0.744822    62A     -0.742328    63A     -0.735033
      64A     -0.723596    65A     -0.693362    66A     -0.689751
      67A     -0.687320    68A     -0.685976    69A     -0.682412
      70A     -0.679005    71A     -0.670458    72A     -0.662692
      73A     -0.646815    74A     -0.641072    75A     -0.631950
      76A     -0.626626    77A     -0.602261    78A     -0.592166
      79A     -0.588787    80A     -0.584489    81A     -0.581436
      82A     -0.570660    83A     -0.560824    84A     -0.554392
      85A     -0.547608    86A     -0.546261    87A     -0.532112
      88A     -0.529416    89A     -0.525665    90A     -0.514247
      91A     -0.504195    92A     -0.493644    93A     -0.492022
      94A     -0.474426    95A     -0.471517    96A     -0.465984
      97A     -0.463987    98A     -0.462538    99A     -0.458097
     100A     -0.453501   101A     -0.449081   102A     -0.442481
     103A     -0.437507   104A     -0.431740   105A     -0.427911
     106A     -0.419696   107A     -0.418342   108A     -0.407610
     109A     -0.399777   110A     -0.396656   111A     -0.396548
     112A     -0.393087   113A     -0.389764   114A     -0.388030
     115A     -0.386675   116A     -0.384604   117A     -0.382167
     118A     -0.380586   119A     -0.379272   120A     -0.373867
     121A     -0.364062   122A     -0.361290   123A     -0.359538
     124A     -0.358033   125A     -0.352134   126A     -0.350339
     127A     -0.349525   128A     -0.348961   129A     -0.344125
     130A     -0.343707   131A     -0.341752   132A     -0.340921
     133A     -0.337970   134A     -0.320564   135A     -0.316829
     136A     -0.309920   137A     -0.309789   138A     -0.300008
     139A     -0.293635   140A     -0.289251   141A     -0.287528
     142A     -0.277166   143A     -0.275988   144A     -0.275324
     145A     -0.274796   146A     -0.273397   147A     -0.267579
     148A     -0.263531   149A     -0.262469   150A     -0.259990
     151A     -0.248295   152A     -0.228326   153A     -0.223003
     154A     -0.221633   155A     -0.220053   156A     -0.214127
     157A     -0.210445   158A     -0.210073   159A     -0.206645
     160A     -0.194303   161A     -0.171028   162A     -0.166473
     163A     -0.163852   164A     -0.134541

  @DF-RKS Final Energy: -1953.77662391743979

   => Energetics <=

    Nuclear Repulsion Energy =           6458.9139115938332907
    One-Electron Energy =              -15510.6427527799569361
    Two-Electron Energy =                7381.3303309069360694
    DFT Exchange-Correlation Energy =    -283.3781136382532395
    Empirical Dispersion Energy =           0.0000000000000000
    VV10 Nonlocal Energy =                  0.0000000000000000
    Total Energy =                      -1953.7766239174397924

  Dipole Moment: [D]
     X:     0.9694      Y:    -0.4163      Z:     0.8917     Total:     1.3813

*** Psi4 exiting successfully. Buy a developer a beer!
