                               Psi4 1.3a2.dev49

  ==> Input File <==

--------------------------------------------------------------------------
import psi4
psi4.set_memory(4e9)
psi4.set_options({'geom_maxiter':100})
psi4.set_module_options('scf',{'maxiter':500})
cnt=psi4.geometry("""
C        4.2397717356     -8.7425403304      0.7774250588
C        3.3185141916     -7.8477029178      1.5560403113
C        2.5580157635     -8.4498617296      2.5757258716
C        2.3140214722     -8.8820858572      5.5243704709
C        2.8558744804     -8.5913185856      6.7809026099
C        5.0328337697     -7.1279153110      8.1815098938
C        6.1481212661     -6.3058641464      7.9909220318
C        7.8126929577     -4.9372679800      5.9411072341
C        7.9630000477     -4.7192050026      4.5678146584
C        6.8202227928     -5.3296304758      1.8913931405
C        5.8002930107     -6.0247313268      1.2320435061
C        4.4689380138     -5.5689842977      1.2928333178
C        3.3125393535     -6.4284593423      1.4591811035
C        2.1345614529     -5.7981050671      1.9153191882
C        1.3412847155     -6.4304082870      2.9020761597
C        1.7495889146     -7.6697500704      3.4169640111
C        1.6102979739     -7.8867257899      4.8255213964
C        1.0512837611     -6.8477703199      5.5938187631
C        1.5978967637     -6.5538781950      6.8643197527
C        2.6937690831     -7.3060622055      7.3294586628
C        3.7418891215     -6.6010296205      8.0030593405
C        3.6017628678     -5.2068251907      8.1515519206
C        4.7299492546     -4.3752715116      7.9584460255
C        5.9666997776     -4.9610618768      7.6233810388
C        6.7676678269     -4.3029063956      6.6360393538
C        6.2595733133     -3.1183520980      6.0684420619
C        6.4095115921     -2.9002554245      4.6791564013
C        7.0654920352     -3.8696086039      3.8978691295
C        6.5109235062     -4.1690260281      2.6128186345
C        5.3469126810     -3.4834017090      2.2233006292
C        4.3149840322     -4.1904224474      1.5569038686
C        3.0404861190     -3.5970487755      1.5186877173
C        1.9236807244     -4.4201216102      1.7066202190
C        0.7111255086     -3.8091585868      2.0902870846
C       -0.0721864429     -4.4448474793      3.0637728475
C        0.3968087535     -5.6564701623      3.6025920611
C        0.2453532000     -5.8714728145      4.9801634734
C       -0.3653000075     -4.8608500654      5.7474369997
C        0.1754109608     -4.5685349002      7.0082242046
C        1.3001014526     -5.3019102441      7.4358613211
C        2.3268485431     -4.6116181766      8.0956734743
C        2.1733602613     -3.2248768816      8.2937383387
C        3.2920031831     -2.4005560185      8.1017083648
C        4.5067510079     -3.0051012578      7.7221466874
C        5.2898766683     -2.3617214016      6.7529543928
C        4.8156407848     -1.1498570651      6.2129117637
C        4.9634302364     -0.9358582925      4.8343668155
C        5.5784540411     -1.9436786842      4.0672730573
C        5.0345521174     -2.2425771922      2.8092391379
C        3.9082668661     -1.5149992019      2.3822583055
C        2.8853984085     -2.2087910836      1.7192598602
C        1.6094405422     -1.6139845926      1.6667137723
C        0.4914018418     -2.4369267144      1.8582222899
C       -0.7263629819     -1.8324889456      2.2267603987
C       -1.5155507005     -2.4762498684      3.2084347146
C       -1.0340596790     -3.6806625629      3.7541089898
C       -1.1842793546     -3.8939751990      5.1323014948
C       -1.8073146079     -2.8918564870      5.8997247853
C       -1.2623779813     -2.5962642172      7.1715638560
C       -0.1307573414     -3.3225323885      7.5896741064
C        0.8955285073     -2.6324267630      8.2507061837
C        0.7398559110     -1.2492660340      8.4628175320
C        1.8680022756     -0.4181523619      8.2689773362
C        3.0753422256     -1.0264630355      7.8764285275
C        3.8574585929     -0.3844179818      6.9054309733
C        3.3942114688      0.8337400609      6.3725690608
C        3.5433084972      1.0487681312      4.9819967491
C        4.1459591072      0.0314781041      4.2182765648
C        3.6049792372     -0.2652347697      2.9585274380
C        2.4884720842      0.4715789627      2.5214655593
C        1.4557990549     -0.2261263299      1.8523324050
C        0.1830208476      0.3679651833      1.7475028647
C       -0.9587658985     -0.4725457746      1.9435740548
C       -2.2395953908      0.0244440618      2.2424972309
C       -3.0196416455     -0.6126004528      3.2129837927
C       -2.5149408981     -1.7434421922      3.8783460770
C       -2.6670797430     -1.9603570700      5.2856614376
C       -3.3351402562     -1.0629956417      6.1372223581
C       -2.7965470462     -0.7705367490      7.3945673951
C       -1.5922295277     -1.3764905748      7.7936446771
C       -0.5451258701     -0.6722898033      8.4698450333
C       -0.6219221064      0.6921066187      8.7999440721
C        0.4934935493      1.5137292641      8.6083009365
C        1.6789227430      0.9659637303      8.0878253970
C        2.4765566196      1.6204941404      7.0952354157
C        2.1502323492      2.8728349158      6.5457048623
C        2.2976462043      3.0852278580      5.1709904099
C        2.7711251246      2.0444526320      4.3527929539
C        2.2201726184      1.7430013836      3.0658415616
C        1.1530845762      2.4596677985      2.4967706201
C        0.1317475266      1.7702564082      1.8352716093
H        5.1383214980     -8.9752185475      1.3568774273
H        3.7357210271     -9.6862055325      0.5388594214
H        4.5136163869     -8.2905696180     -0.1808502320
H        2.7542766541     -9.4923382109      2.8163084108
H        2.6663791173     -9.7801728560      5.0237431923
H        3.5924028485     -9.2847748755      7.1783176074
H        5.2042233013     -8.2006297208      8.2163102391
H        7.1145270743     -6.7927748358      7.8896184003
H        8.3499107341     -5.7769008747      6.3742957758
H        8.6065398282     -5.4035831706      4.0212299633
H        7.7696014951     -5.8416999410      2.0241044677
H        6.0495132498     -7.0213633317      0.8910158498
H       -2.5443073657      1.0207446676      1.9329637721
H       -3.8808873199     -0.0709972293      3.5953234270
H       -4.1137171699     -0.4036810468      5.7625283773
H       -3.1909082870      0.0975277175      7.9163308327
H       -1.5795161473      1.1804748427      8.9604180492
H        0.3317070838      2.5882069909      8.6321001655
H        1.5580200808      3.5952395651      7.1013078801
H        1.8106992765      3.9591840315      4.7463132223
H        0.9637576125      3.4960320629      2.7638972904
H       -0.7863423665      2.3149227582      1.6309489492
""")
psi4.optimize('pbe/6-31G(d)',molecule=cnt)
--------------------------------------------------------------------------

    Molecular point group: c1
  Charge       = 0
  Multiplicity = 1
  Basis Set: 6-31G(D)
    Blend: 6-31G(D)
  Basis Set: (6-31G(D) AUX)
    Blend: CC-PVDZ-JKFIT
  @DF-RKS Final Energy: -3476.88105681885781
    Total Energy =                      -3476.8810568188578145
    Molecular point group: c1
  Basis Set: 6-31G(D)
    Blend: 6-31G(D)
  Basis Set: (6-31G(D) AUX)
    Blend: CC-PVDZ-JKFIT
  Basis Set: 6-31G(D)
    Blend: 6-31G(D)
  Basis Set: (6-31G(D) AUX)
    Blend: CC-PVDZ-JKFIT
  @DF-RKS Final Energy: -3476.94220032681278
    Total Energy =                      -3476.9422003268127810
  Basis Set: 6-31G(D)
    Blend: 6-31G(D)
  Basis Set: (6-31G(D) AUX)
    Blend: CC-PVDZ-JKFIT
  Basis Set: 6-31G(D)
    Blend: 6-31G(D)
  @DF-RKS Final Energy: -3476.94861000318542
    Total Energy =                      -3476.9486100031854221
  @DF-RKS Final Energy: -3476.94941805460985
    Total Energy =                      -3476.9494180546098505
  @DF-RKS Final Energy: -3476.94948803469060
    Total Energy =                      -3476.9494880346906029
  @DF-RKS Final Energy: -3476.94949827792243
    Total Energy =                      -3476.9494982779224301
  Basis Set: (6-31G(D) AUX)
    Blend: CC-PVDZ-JKFIT
  Basis Set: 6-31G(D)
    Blend: 6-31G(D)
  Basis Set: (6-31G(D) AUX)
    Blend: CC-PVDZ-JKFIT
  @DF-RKS Final Energy: -3476.94950132062786
    Total Energy =                      -3476.9495013206278600
  Basis Set: 6-31G(D)
    Blend: 6-31G(D)
  Basis Set: (6-31G(D) AUX)
    Blend: CC-PVDZ-JKFIT
  Charge       = 0
  Multiplicity = 1
  Basis Set: 6-31G(D)
    Blend: 6-31G(D)
  Basis Set: (6-31G(D) AUX)
    Blend: CC-PVDZ-JKFIT

    Orbital Energies [Eh]
    ---------------------

    Doubly Occupied:

       1A     -9.927641     2A     -9.926864     3A     -9.926052
       4A     -9.925716     5A     -9.925688     6A     -9.925585
       7A     -9.925536     8A     -9.925524     9A     -9.925519
      10A     -9.925476    11A     -9.925471    12A     -9.925395
      13A     -9.925387    14A     -9.925337    15A     -9.925307
      16A     -9.925264    17A     -9.925202    18A     -9.925190
      19A     -9.924960    20A     -9.924604    21A     -9.924278
      22A     -9.924206    23A     -9.924179    24A     -9.924109
      25A     -9.924103    26A     -9.924093    27A     -9.924017
      28A     -9.924007    29A     -9.923987    30A     -9.923984
      31A     -9.923964    32A     -9.923961    33A     -9.923955
      34A     -9.923929    35A     -9.923905    36A     -9.923902
      37A     -9.923893    38A     -9.923889    39A     -9.923866
      40A     -9.923826    41A     -9.923818    42A     -9.923815
      43A     -9.923800    44A     -9.923759    45A     -9.923713
      46A     -9.923704    47A     -9.923691    48A     -9.923659
      49A     -9.923640    50A     -9.923636    51A     -9.923614
      52A     -9.923590    53A     -9.923586    54A     -9.923553
      55A     -9.923543    56A     -9.923527    57A     -9.923520
      58A     -9.923483    59A     -9.923469    60A     -9.923464
      61A     -9.923417    62A     -9.923378    63A     -9.923375
      64A     -9.923346    65A     -9.923238    66A     -9.923215
      67A     -9.923146    68A     -9.923111    69A     -9.923007
      70A     -9.922725    71A     -9.921489    72A     -9.915575
      73A     -9.915518    74A     -9.915425    75A     -9.915389
      76A     -9.915346    77A     -9.915329    78A     -9.915282
      79A     -9.915267    80A     -9.915172    81A     -9.915116
      82A     -9.915023    83A     -9.914987    84A     -9.914943
      85A     -9.914925    86A     -9.914879    87A     -9.914860
      88A     -9.913956    89A     -9.913229    90A     -9.911040
      91A     -9.908673    92A     -0.847053    93A     -0.837589
      94A     -0.837474    95A     -0.824845    96A     -0.815737
      97A     -0.815512    98A     -0.809672    99A     -0.809592
     100A     -0.791995   101A     -0.788974   102A     -0.788649
     103A     -0.783462   104A     -0.782853   105A     -0.766401
     106A     -0.766120   107A     -0.756758   108A     -0.755848
     109A     -0.747523   110A     -0.745557   111A     -0.745309
     112A     -0.739807   113A     -0.738100   114A     -0.716940
     115A     -0.713546   116A     -0.713102   117A     -0.712289
     118A     -0.706647   119A     -0.706496   120A     -0.697392
     121A     -0.690539   122A     -0.687215   123A     -0.687059
     124A     -0.686781   125A     -0.676223   126A     -0.673151
     127A     -0.670295   128A     -0.667635   129A     -0.659261
     130A     -0.658086   131A     -0.654053   132A     -0.650540
     133A     -0.642190   134A     -0.640176   135A     -0.637684
     136A     -0.624870   137A     -0.609277   138A     -0.605610
     139A     -0.594087   140A     -0.593592   141A     -0.592009
     142A     -0.590666   143A     -0.588517   144A     -0.587067
     145A     -0.585047   146A     -0.579132   147A     -0.566517
     148A     -0.564230   149A     -0.562443   150A     -0.547761
     151A     -0.546169   152A     -0.542371   153A     -0.542180
     154A     -0.539695   155A     -0.537043   156A     -0.536511
     157A     -0.535532   158A     -0.527036   159A     -0.523905
     160A     -0.516761   161A     -0.505193   162A     -0.497876
     163A     -0.496076   164A     -0.489696   165A     -0.478143
     166A     -0.476486   167A     -0.474240   168A     -0.473669
     169A     -0.472958   170A     -0.471487   171A     -0.466132
     172A     -0.462505   173A     -0.459371   174A     -0.458773
     175A     -0.458730   176A     -0.457110   177A     -0.443500
     178A     -0.442630   179A     -0.440757   180A     -0.436205
     181A     -0.434287   182A     -0.427158   183A     -0.426693
     184A     -0.415757   185A     -0.414078   186A     -0.413341
     187A     -0.410318   188A     -0.409668   189A     -0.409178
     190A     -0.406309   191A     -0.405060   192A     -0.402874
     193A     -0.400233   194A     -0.399365   195A     -0.396965
     196A     -0.395649   197A     -0.393810   198A     -0.392668
     199A     -0.391287   200A     -0.390264   201A     -0.389781
     202A     -0.388159   203A     -0.384232   204A     -0.383821
     205A     -0.382657   206A     -0.380761   207A     -0.378854
     208A     -0.378173   209A     -0.376323   210A     -0.373626
     211A     -0.371743   212A     -0.370933   213A     -0.370804
     214A     -0.368686   215A     -0.364781   216A     -0.364334
     217A     -0.361237   218A     -0.359881   219A     -0.358766
     220A     -0.358081   221A     -0.357836   222A     -0.354247
     223A     -0.352914   224A     -0.350589   225A     -0.349909
     226A     -0.344746   227A     -0.344063   228A     -0.342880
     229A     -0.342082   230A     -0.339424   231A     -0.336503
     232A     -0.327505   233A     -0.326948   234A     -0.319039
     235A     -0.318095   236A     -0.317722   237A     -0.316632
     238A     -0.315627   239A     -0.307660   240A     -0.307493
     241A     -0.305283   242A     -0.302840   243A     -0.299839
     244A     -0.299552   245A     -0.297518   246A     -0.296807
     247A     -0.293618   248A     -0.292845   249A     -0.291834
     250A     -0.290449   251A     -0.284174   252A     -0.281594
     253A     -0.281317   254A     -0.281035   255A     -0.279521
     256A     -0.278644   257A     -0.276943   258A     -0.272098
     259A     -0.271408   260A     -0.256957   261A     -0.256130
     262A     -0.253626   263A     -0.252614   264A     -0.248947
     265A     -0.248243   266A     -0.237319   267A     -0.237024
     268A     -0.235976   269A     -0.230564   270A     -0.228802
     271A     -0.218416   272A     -0.218108   273A     -0.217834
     274A     -0.216833   275A     -0.216649   276A     -0.215829
     277A     -0.194217   278A     -0.191137   279A     -0.190631
     280A     -0.188257   281A     -0.187682   282A     -0.177632
     283A     -0.171642   284A     -0.136327

  @DF-RKS Final Energy: -3476.94950379172951

   => Energetics <=

    Nuclear Repulsion Energy =          16087.4200953405816108
    One-Electron Energy =              -36789.0595648258677102
    Two-Electron Energy =               17722.4075632717322151
    DFT Exchange-Correlation Energy =    -497.7175975781758552
    Empirical Dispersion Energy =           0.0000000000000000
    VV10 Nonlocal Energy =                  0.0000000000000000
    Total Energy =                      -3476.9495037917295122

  Dipole Moment: [D]
     X:     0.1609      Y:    -0.6003      Z:    -0.5367     Total:     0.8212

    Molecular point group: c1
  Basis Set: 6-31G(D)
    Blend: 6-31G(D)
  Basis Set: (6-31G(D) AUX)
    Blend: CC-PVDZ-JKFIT

  -Total Gradient:
     Atom            X                  Y                   Z
    ------   -----------------  -----------------  -----------------
       1        0.000016388315    -0.000001869939    -0.000001946899
       2       -0.000007683968    -0.000006819957     0.000010121017
       3        0.000012401613    -0.000004589331    -0.000006846925
       4       -0.000001019101    -0.000004914528    -0.000006309390
       5        0.000003726078    -0.000000253206     0.000007974959
       6       -0.000000445600    -0.000002386972     0.000002988699
       7        0.000002488764     0.000001165948     0.000002335644
       8        0.000001883290     0.000001500749     0.000004414126
       9        0.000002566156     0.000003360597    -0.000000516124
      10        0.000011636012     0.000003857898     0.000006513477
      11       -0.000010934717     0.000002178539    -0.000003503348
      12        0.000013116283     0.000034486578     0.000011263060
      13       -0.000005475914    -0.000002010850    -0.000000188324
      14        0.000025694823    -0.000005217937    -0.000021149163
      15       -0.000003938146    -0.000020049722     0.000014268096
      16       -0.000002368012     0.000011953983     0.000002909087
      17       -0.000004991105     0.000013797653     0.000004581326
      18       -0.000001910152    -0.000012804544    -0.000019588797
      19        0.000012665753    -0.000005116883     0.000018670308
      20       -0.000007603698     0.000007936601    -0.000004251855
      21       -0.000002346955     0.000007354403    -0.000000880651
      22       -0.000008789208    -0.000015334455     0.000004804874
      23        0.000022399797     0.000004314387    -0.000000432858
      24       -0.000009398319     0.000010676385    -0.000002825480
      25       -0.000008653388     0.000001853567     0.000002687914
      26        0.000004188959    -0.000008119040     0.000020360928
      27        0.000009388768    -0.000003510724    -0.000017988466
      28        0.000000502259    -0.000000100628     0.000005145642
      29       -0.000017287757     0.000007693548    -0.000003763125
      30        0.000025802087     0.000003567194     0.000010246169
      31       -0.000001971089    -0.000035304994    -0.000014895370
      32       -0.000006239671     0.000007263827     0.000004301745
      33       -0.000001091341     0.000008129167     0.000002981748
      34        0.000001290587    -0.000002117553    -0.000002882973
      35       -0.000000978337    -0.000001529921     0.000000550379
      36        0.000002258310    -0.000000302488    -0.000000715147
      37       -0.000002588485     0.000005415279     0.000000174336
      38       -0.000000918599    -0.000002211959    -0.000002861699
      39       -0.000001398383    -0.000001718687     0.000000840669
      40       -0.000001168025     0.000003995414    -0.000000366688
      41       -0.000003149067     0.000002489930    -0.000002027901
      42       -0.000005997244    -0.000001716696     0.000000837616
      43        0.000002445872     0.000001201799    -0.000000751064
      44       -0.000005721821     0.000004880013    -0.000000532396
      45       -0.000005584024     0.000003925996     0.000000430282
      46       -0.000000325975    -0.000000858013     0.000002853684
      47        0.000000234735     0.000001251161    -0.000001278056
      48       -0.000003880359     0.000000363611     0.000000504117
      49       -0.000005316369     0.000006322107     0.000003456806
      50        0.000003586385     0.000003788799     0.000001411288
      51       -0.000000696945    -0.000004494156    -0.000005159766
      52        0.000004058562    -0.000005926412     0.000001343051
      53        0.000005776173    -0.000001465226    -0.000000996575
      54        0.000004697237     0.000014729328    -0.000015522846
      55       -0.000017589085    -0.000002205681     0.000011444744
      56        0.000004557843    -0.000005069337    -0.000000588782
      57        0.000002973795    -0.000002713927    -0.000003683118
      58       -0.000015405724     0.000003641973    -0.000018515028
      59       -0.000001275672     0.000013042776     0.000017696865
      60        0.000003153668    -0.000003524791    -0.000002225367
      61        0.000003101943    -0.000005994907    -0.000002992259
      62       -0.000023582091     0.000000705644     0.000004726378
      63        0.000008802649     0.000019722614    -0.000001475370
      64        0.000000634127    -0.000003169302    -0.000002817277
      65       -0.000001890732    -0.000003854153    -0.000000033613
      66       -0.000006375781     0.000004963664     0.000018664148
      67       -0.000004727822     0.000014552048    -0.000015689338
      68        0.000001655940    -0.000005454339     0.000000423628
      69        0.000004178959    -0.000006554916     0.000000228433
      70        0.000007672014     0.000022637575     0.000010172265
      71       -0.000018479675    -0.000000562589    -0.000010973394
      72        0.000005095589    -0.000009135521     0.000000969036
      73        0.000006309515    -0.000007981490     0.000001293111
      74        0.000002060604     0.000001928215    -0.000007737282
      75       -0.000004232630    -0.000003989904     0.000000192728
      76        0.000009213108    -0.000006773414    -0.000003249076
      77        0.000006485359    -0.000005140787    -0.000002199852
      78       -0.000004171285    -0.000002341634    -0.000005309259
      79       -0.000001910084     0.000000138862     0.000001599534
      80        0.000004205807    -0.000006663975    -0.000005651887
      81        0.000007033434    -0.000007537439    -0.000005553042
      82       -0.000006388490    -0.000001417731     0.000000147596
      83       -0.000000269044     0.000002892419    -0.000000243039
      84        0.000000310530    -0.000008775652    -0.000003639035
      85        0.000000137730    -0.000006552262    -0.000004681606
      86       -0.000001777707     0.000000346672     0.000004651031
      87       -0.000000350907     0.000001793494    -0.000005806770
      88        0.000002330455    -0.000009852704     0.000003147337
      89        0.000003436862    -0.000010509688     0.000000079293
      90        0.000000707195     0.000002814281    -0.000001535109
      91       -0.000002064413     0.000000864625    -0.000003710725
      92       -0.000004247404    -0.000000667501     0.000003731148
      93        0.000001761930     0.000000853341    -0.000004863785
      94       -0.000000120640    -0.000001856315     0.000001580490
      95        0.000002398138     0.000000388755    -0.000001257298
      96        0.000005108928     0.000000008387     0.000003289561
      97        0.000000824922    -0.000002576032    -0.000002741152
      98        0.000003721944    -0.000000262834     0.000001438402
      99       -0.000002371148    -0.000001659010     0.000002149085
     100        0.000001656197     0.000001044189    -0.000000749860
     101        0.000002225743     0.000000117863     0.000006816862
     102       -0.000002055422    -0.000002753063     0.000001857621
     103        0.000004950450    -0.000002404164     0.000006357007
     104       -0.000002685992    -0.000000727832     0.000000248388
     105        0.000000703345     0.000002000057    -0.000005113894
     106       -0.000001208937     0.000000793539    -0.000000074521
     107       -0.000004425400    -0.000000316910    -0.000005486447
     108       -0.000000709507     0.000002692574    -0.000002791432
     109       -0.000006586737    -0.000000815340    -0.000000990716
     110       -0.000003082741     0.000001618395    -0.000004556442
     111       -0.000002896113     0.000000388914     0.000002818062
     112       -0.000003670481    -0.000000567420    -0.000003008278
     113        0.000001127778     0.000002264419    -0.000000814657

  **** Optimization is complete! (in 8 steps) ****
    Final optimized geometry and variables:
    Molecular point group: c1

    Geometry (in Angstrom), charge = 0, multiplicity = 1:

    C            2.038581997791    -5.795931412271    -4.136610841740
    C            1.097641998451    -4.912464299101    -3.345658359768
    C            0.324612370574    -5.503936749350    -2.344931429159
    C            0.098102487731    -5.940871771150     0.623531910254
    C            0.631653723266    -5.655170032233     1.873741227799
    C            2.800316166304    -4.195847434301     3.305991764574
    C            3.909321993376    -3.380774607114     3.120460977833
    C            5.572764110204    -2.022878348660     1.049898231941
    C            5.716381272750    -1.813897523067    -0.315718513937
    C            4.567122345691    -2.422627375749    -3.009423954979
    C            3.557346006214    -3.103998498760    -3.678034853097
    C            2.213853382954    -2.615989391549    -3.674799551662
    C            1.038536813720    -3.479247337111    -3.495329351677
    C           -0.157363312048    -2.848427736132    -3.028654406803
    C           -0.965430909027    -3.492450856525    -2.029917340723
    C           -0.543317026702    -4.747987012159    -1.510015668578
    C           -0.682557440110    -4.971838845731    -0.070951555154
    C           -1.252007260351    -3.925035384722     0.713532900186
    C           -0.696235969230    -3.626878683211     2.006747329075
    C            0.413905866871    -4.384851631186     2.483779386062
    C            1.482000762840    -3.666344966943     3.182938909383
    C            1.345618314355    -2.254760145493     3.331363794192
    C            2.494790231462    -1.410147715467     3.138515889142
    C            3.749110100401    -1.999774275843     2.803351984135
    C            4.566921824788    -1.332288499778     1.787975605978
    C            4.055397161126    -0.135716364839     1.204783250518
    C            4.204555247521     0.080756628821    -0.209722029377
    C            4.861745166316    -0.903759653361    -1.004030127896
    C            4.293558654472    -1.209451501409    -2.318053854678
    C            3.116645166766    -0.510518496525    -2.716077626311
    C            2.066915193499    -1.219002674199    -3.399465901411
    C            0.766398686971    -0.605672560163    -3.450948150935
    C           -0.374708058324    -1.443023245870    -3.256476741724
    C           -1.611950913834    -0.840364065738    -2.881123905200
    C           -2.421346199453    -1.496103389327    -1.878222126163
    C           -1.939229594756    -2.712098537588    -1.316393360710
    C           -2.090475581923    -2.935090429127     0.088387780977
    C           -2.717992664718    -1.928916840035     0.878430472015
    C           -2.158175829524    -1.628149080347     2.178427077671
    C           -1.006837133522    -2.353189311789     2.604065710515
    C            0.039619283178    -1.650056194122     3.280268008707
    C           -0.104529100643    -0.249479188924     3.502636948910
    C            1.050688572918     0.599641520430     3.306478971659
    C            2.275578642812    -0.006588403445     2.902763417946
    C            3.075133996221     0.646354862289     1.912513377687
    C            2.618873402878     1.880229489176     1.364190006898
    C            2.771073661786     2.098941357880    -0.058162798729
    C            3.367595759078     1.068163555805    -0.840549587134
    C            2.811520954600     0.765990336211    -2.123586622377
    C            1.685204581034     1.510354141633    -2.577921545626
    C            0.628203096313     0.801250127417    -3.264320537309
    C           -0.668850680248     1.391047061549    -3.298376725021
    C           -1.811725212831     0.553471090442    -3.102344934805
    C           -3.051727267790     1.173331842069    -2.711031871116
    C           -3.855975402258     0.518732887271    -1.712900821814
    C           -3.377185986017    -0.721105534264    -1.160123942210
    C           -3.528837643405    -0.941907064674     0.245073803959
    C           -4.153437259885     0.088957043590     1.032504068865
    C           -3.597782052459     0.387697730812     2.326042528448
    C           -2.446214624760    -0.359696598415     2.761705972122
    C           -1.398924724471     0.343336478912     3.436489761383
    C           -1.551938383771     1.760430747832     3.643012469355
    C           -0.403277081381     2.604616482266     3.445652157398
    C            0.836749026690     1.986073747853     3.054407852471
    C            1.636172392246     2.639047423626     2.063947958349
    C            1.157983303930     3.879741434086     1.511010944145
    C            1.311294178259     4.098698682569     0.096870107715
    C            1.933042926524     3.064252671570    -0.688641777920
    C            1.380813654372     2.765112695684    -1.973713478287
    C            0.233545204639     3.515092058291    -2.414527924001
    C           -0.819951019460     2.808741001110    -3.094635943188
    C           -2.109267510190     3.408582069599    -3.201371315976
    C           -3.279413042376     2.551248357298    -2.999343840337
    C           -4.552078194112     3.078584098224    -2.630765984051
    C           -5.328226718921     2.446212315855    -1.668152923074
    C           -4.866758542580     1.257423656058    -1.030122360018
    C           -5.023181299805     1.031472197128     0.408496840381
    C           -5.648167374332     1.985913608304     1.263927287424
    C           -5.112462497774     2.273968812509     2.512414872351
    C           -3.926969502810     1.621033124265     2.961631821012
    C           -2.854340333146     2.340848879843     3.651888716266
    C           -2.927311479897     3.740038321113     3.917485961543
    C           -1.818819877741     4.554619978362     3.726262343997
    C           -0.587128149669     4.006717109438     3.261474431907
    C            0.231152317751     4.675110267959     2.247027563509
    C           -0.151768148551     5.916482826814     1.658948080804
    C           -0.003133152146     6.128353152559     0.294484740303
    C            0.534688373739     5.108227926247    -0.544401220360
    C           -0.029392351877     4.802854456284    -1.861014566213
    C           -1.151922535704     5.506487740434    -2.388580889953
    C           -2.168949807415     4.824673601866    -3.043935392812
    H            2.995999284819    -5.972852966063    -3.611124701631
    H            1.575373937794    -6.784629028479    -4.294744737729
    H            2.269919600066    -5.372575740153    -5.127189606067
    H            0.501247251988    -6.563999424959    -2.127279493228
    H            0.429850882813    -6.847124176120     0.107179188774
    H            1.362518042342    -6.349046212566     2.300236955385
    H            2.952660555126    -5.277268717529     3.376613840679
    H            4.896184236593    -3.848671974188     3.050761319809
    H            6.122853583659    -2.847954076175     1.512830409516
    H            6.373837908978    -2.482040499613    -0.880597946880
    H            5.536470144491    -2.916798100636    -2.890169748810
    H            3.785736247361    -4.094358341247    -4.071589568708
    H           -4.852827769229     4.073612751406    -2.973011735079
    H           -6.212969966327     2.965307350961    -1.286786309592
    H           -6.451216968623     2.622830308623     0.880330142838
    H           -5.512202902068     3.127796507252     3.068136837493
    H           -3.896274572850     4.212330875834     4.106433038272
    H           -1.953847432576     5.639703567394     3.771476974746
    H           -0.722098756909     6.646324080850     2.241807782862
    H           -0.461511169765     7.017639559201    -0.149029192950
    H           -1.308335855237     6.559262033171    -2.133871836132
    H           -3.090797652410     5.364319508905    -3.281973636002

*** Psi4 exiting successfully. Buy a developer a beer!
