                               Psi4 1.3a2.dev49

  ==> Input File <==

--------------------------------------------------------------------------
import psi4
psi4.set_memory(3e9)
psi4.set_options({'geom_maxiter':100})
cnt=psi4.geometry("""
0 1
C     3.4773235054  -0.1137423500  -2.5374873557
C     3.1941619405   1.2264647832  -2.6290839558
C     2.7342280381   1.9485562843  -1.4681703176
C     1.6851077478   2.9203892477  -1.5310435774
C     1.0002904071   3.2417483282  -2.7603798279
C    -0.3618167543   3.4154453312  -2.7663428002
C    -1.1160233330   3.2773279844  -1.5431226370
C    -2.3704975961   2.5906901709  -1.4897592452
C    -2.9733728028   1.9888170332  -2.6555092773
C    -3.5496313074   0.7458680011  -2.5681635615
C    -3.5535092250   0.0360847988  -1.3107756793
C    -3.2662622303  -1.3630138379  -1.2200890911
C    -2.9574374566  -2.1646433429  -2.3799162487
C    -1.9450797465  -3.0909923241  -2.3281344359
C    -1.1871758421  -3.2705706365  -1.1135477113
C     0.2338732367  -3.4460345551  -1.1144736467
C     1.0169667791  -3.4513960426  -2.3260650071
C     2.2239965463  -2.7984799575  -2.3635602882
C     2.7106599309  -2.1013518427  -1.1962219864
C     3.3099473050  -0.8053634426  -1.2816113461
C     3.3530715711  -0.0165160444  -0.0885617242
C     3.0610404847   1.3939100961  -0.1871432442
C     2.7422462422   2.1189112262   1.0061529820
C     1.6951946602   3.0907827609   0.9453911161
C     1.0296915218   3.2830968064  -0.3092173102
C    -0.4019322933   3.4671082635  -0.3151342438
C    -1.1042073273   3.4472558491   0.9342901303
C    -2.3571461939   2.7585778837   0.9873955820
C -3.13244873795 1.4787714229500004 0.3400294277347839
C -3.13244873795 1.4787714229500004 -0.6721874490347839
C    -3.5329146120   0.2009587782   1.1665240866
C    -3.2407256913  -1.1968861056   1.2579416692
C    -2.8750543486  -1.8869999130   0.0556268498
C    -1.8122900635  -2.8619513951   0.1098537486
C    -1.1633250109  -3.1075007257   1.3648564714
C     0.2526297147  -3.2977619353   1.3609369659
C     0.9392796012  -3.2128109884   0.1091956513
C     2.2069823495  -2.5250915608   0.0755064745
C     2.7299700556  -1.9599139575   1.2905920181
C     3.3106595150  -0.6523787026   1.2017608514
C     3.5051978812   0.2204565178   2.3397174931
C     3.2214273786   1.5605997352   2.2457974583
C     1.0222889384   3.5770238954   2.1260660353
C    -0.3394586308   3.7513765784   2.1205024918
C    -2.9449983773   2.3176775425   2.2305460673
C    -3.5161305998   1.0725184976   2.3178117459
C    -2.9030014564  -1.8334044902   2.5089858470
C    -1.8916745798  -2.7606363670   2.5609979670
C     1.0740775384  -3.2241368428   2.5424271164
C     2.2999635311  -2.5950632459   2.5354223390
H     3.6950322310  -0.6815552453  -3.4472690889
H     3.1903409642   1.7105943432  -3.6105408338
H     1.5426368887   3.2119649797  -3.7104517310
H    -0.8863358091   3.5212066841  -3.7209816822
H    -2.8515346369   2.4582773329  -3.6365563365
H    -3.8801370877   0.2404609094  -3.4808420562
H    -3.4333452577  -1.9408208146  -3.3396037585
H    -1.6281535064  -3.5934133791  -3.2473335329
H     0.5932127205  -3.8553507809  -3.2506299608
H     2.7465311637  -2.6882427578  -3.3187069049
H     3.7667135083  -0.1952154538   3.3132624857
H     3.2452762399   2.1775199204   3.1496070767
H     1.5741552326   3.6755145270   3.0659903552
H    -0.8558003921   3.9872154788   3.0561322690
H    -2.8147716069   2.9154363776   3.1379598145
H    -3.8348207620   0.6934734187   3.2937444310
H    -3.3540212200  -1.4768802345   3.4401154089
H    -1.5468219517  -3.1284876621   3.5324252498
H     0.6839767985  -3.6022605276   3.4948635957
C     3.1037938860  -2.5261632701   3.8161517513
H     4.1869244443  -2.4675317592   3.6191736624
H     2.9196439584  -3.4286936392   4.4228765045
H     2.8291373270  -1.6575629017   4.4430353003
""")

psi4.optimize('pbe/6-31G(d)',molecule=cnt)
--------------------------------------------------------------------------

    Molecular point group: c1
  Charge       = 0
  Multiplicity = 1
  Basis Set: 6-31G(D)
    Blend: 6-31G(D)
  Basis Set: (6-31G(D) AUX)
    Blend: CC-PVDZ-JKFIT
  @DF-RKS Final Energy: -1953.68331861703473
    Total Energy =                      -1953.6833186170347290
    Molecular point group: c1
  Basis Set: 6-31G(D)
    Blend: 6-31G(D)
  Basis Set: (6-31G(D) AUX)
    Blend: CC-PVDZ-JKFIT
  Basis Set: 6-31G(D)
    Blend: 6-31G(D)
  Basis Set: (6-31G(D) AUX)
    Blend: CC-PVDZ-JKFIT
  @DF-RKS Final Energy: -1953.90935197056751
    Total Energy =                      -1953.9093519705675135
  Basis Set: 6-31G(D)
    Blend: 6-31G(D)
  Basis Set: (6-31G(D) AUX)
    Blend: CC-PVDZ-JKFIT
  Basis Set: 6-31G(D)
    Blend: 6-31G(D)
  @DF-RKS Final Energy: -1954.03788812951643
    Total Energy =                      -1954.0378881295164319
  @DF-RKS Final Energy: -1954.11375808313869
    Total Energy =                      -1954.1137580831386913
  @DF-RKS Final Energy: -1954.15473540657740
    Total Energy =                      -1954.1547354065774016
  @DF-RKS Final Energy: -1954.16780268702746
    Total Energy =                      -1954.1678026870274607
  @DF-RKS Final Energy: -1954.16961995171323
    Total Energy =                      -1954.1696199517132300
  @DF-RKS Final Energy: -1954.17018654952449
    Total Energy =                      -1954.1701865495244874
  @DF-RKS Final Energy: -1954.17064139595277
    Total Energy =                      -1954.1706413959527708
  @DF-RKS Final Energy: -1954.17079410044335
    Total Energy =                      -1954.1707941004433451
  @DF-RKS Final Energy: -1954.17084848453214
    Total Energy =                      -1954.1708484845321436
  Basis Set: (6-31G(D) AUX)
    Blend: CC-PVDZ-JKFIT
  Basis Set: 6-31G(D)
    Blend: 6-31G(D)
  Basis Set: (6-31G(D) AUX)
    Blend: CC-PVDZ-JKFIT
  @DF-RKS Final Energy: -1954.17085249166394
    Total Energy =                      -1954.1708524916639362
  Basis Set: 6-31G(D)
    Blend: 6-31G(D)
  Basis Set: (6-31G(D) AUX)
    Blend: CC-PVDZ-JKFIT
  Charge       = 0
  Multiplicity = 1
  Basis Set: 6-31G(D)
    Blend: 6-31G(D)
  Basis Set: (6-31G(D) AUX)
    Blend: CC-PVDZ-JKFIT

    Orbital Energies [Eh]
    ---------------------

    Doubly Occupied:

       1A     -9.926747     2A     -9.926631     3A     -9.926626
       4A     -9.926496     5A     -9.921878     6A     -9.921554
       7A     -9.921350     8A     -9.920003     9A     -9.919688
      10A     -9.919678    11A     -9.919223    12A     -9.918915
      13A     -9.918200    14A     -9.918013    15A     -9.917971
      16A     -9.917954    17A     -9.917931    18A     -9.917080
      19A     -9.916777    20A     -9.916490    21A     -9.916193
      22A     -9.916014    23A     -9.915919    24A     -9.915636
      25A     -9.914526    26A     -9.913782    27A     -9.913352
      28A     -9.911493    29A     -9.911270    30A     -9.911037
      31A     -9.910812    32A     -9.910641    33A     -9.910626
      34A     -9.910280    35A     -9.910260    36A     -9.910237
      37A     -9.909516    38A     -9.909214    39A     -9.909144
      40A     -9.909064    41A     -9.909060    42A     -9.909046
      43A     -9.908962    44A     -9.908589    45A     -9.908484
      46A     -9.906688    47A     -9.905103    48A     -9.898756
      49A     -9.898712    50A     -9.898363    51A     -9.898320
      52A     -0.825512    53A     -0.815224    54A     -0.814719
      55A     -0.790261    56A     -0.785143    57A     -0.784277
      58A     -0.767582    59A     -0.761188    60A     -0.745233
      61A     -0.744147    62A     -0.739563    63A     -0.732305
      64A     -0.700528    65A     -0.691581    66A     -0.689607
      67A     -0.687404    68A     -0.683256    69A     -0.676439
      70A     -0.668562    71A     -0.667257    72A     -0.664338
      73A     -0.647267    74A     -0.644106    75A     -0.628057
      76A     -0.615285    77A     -0.609627    78A     -0.585932
      79A     -0.584339    80A     -0.579623    81A     -0.571075
      82A     -0.564620    83A     -0.561611    84A     -0.552176
      85A     -0.544895    86A     -0.539459    87A     -0.528597
      88A     -0.523267    89A     -0.517157    90A     -0.495488
      91A     -0.493433    92A     -0.491365    93A     -0.488727
      94A     -0.484775    95A     -0.467694    96A     -0.465051
      97A     -0.457871    98A     -0.454457    99A     -0.444617
     100A     -0.442437   101A     -0.437483   102A     -0.434978
     103A     -0.428400   104A     -0.419383   105A     -0.411626
     106A     -0.406187   107A     -0.405519   108A     -0.397910
     109A     -0.394572   110A     -0.393653   111A     -0.391531
     112A     -0.388709   113A     -0.387230   114A     -0.386586
     115A     -0.381530   116A     -0.378470   117A     -0.377798
     118A     -0.371899   119A     -0.366964   120A     -0.364511
     121A     -0.359763   122A     -0.358316   123A     -0.354850
     124A     -0.352459   125A     -0.352128   126A     -0.348983
     127A     -0.346475   128A     -0.345081   129A     -0.343427
     130A     -0.337645   131A     -0.337435   132A     -0.330411
     133A     -0.326060   134A     -0.321843   135A     -0.316599
     136A     -0.311343   137A     -0.308996   138A     -0.308678
     139A     -0.307343   140A     -0.300681   141A     -0.298657
     142A     -0.296584   143A     -0.281565   144A     -0.276925
     145A     -0.275757   146A     -0.274773   147A     -0.273425
     148A     -0.273066   149A     -0.269625   150A     -0.265107
     151A     -0.258210   152A     -0.231709   153A     -0.229550
     154A     -0.227590   155A     -0.226532   156A     -0.224154
     157A     -0.213770   158A     -0.210558   159A     -0.210114
     160A     -0.197581   161A     -0.181247   162A     -0.175459
     163A     -0.150455   164A     -0.146238

  @DF-RKS Final Energy: -1954.17085273797238

   => Energetics <=

    Nuclear Repulsion Energy =           6350.0327818926261898
    One-Electron Energy =              -15293.9584841183259414
    Two-Electron Energy =                7271.9822963406859344
    DFT Exchange-Correlation Energy =    -282.2274468529577689
    Empirical Dispersion Energy =           0.0000000000000000
    VV10 Nonlocal Energy =                  0.0000000000000000
    Total Energy =                      -1954.1708527379723819

  Dipole Moment: [D]
     X:     1.2840      Y:    -0.7003      Z:     0.4522     Total:     1.5309

    Molecular point group: c1
  Basis Set: 6-31G(D)
    Blend: 6-31G(D)
  Basis Set: (6-31G(D) AUX)
    Blend: CC-PVDZ-JKFIT

  -Total Gradient:
     Atom            X                  Y                   Z
    ------   -----------------  -----------------  -----------------
       1        0.000001831713    -0.000012879878     0.000007177659
       2       -0.000004494699     0.000010067883     0.000003726124
       3        0.000009915948    -0.000004929068     0.000000093457
       4       -0.000006363389     0.000003071406    -0.000005347573
       5        0.000016625122    -0.000001016627     0.000012979001
       6       -0.000016232364    -0.000003961418     0.000010953834
       7        0.000019465696    -0.000003734309     0.000049672858
       8       -0.000049218818     0.000007721034    -0.000074274355
       9        0.000011884061     0.000017791170     0.000021858558
      10        0.000028953673    -0.000041945461     0.000005613232
      11       -0.000047111128     0.000039628001    -0.000093871497
      12       -0.000000002777    -0.000018717083     0.000035832813
      13       -0.000007527903     0.000013184386     0.000004691030
      14        0.000012109847    -0.000007285069     0.000010929994
      15       -0.000004247659    -0.000001763622    -0.000004312103
      16        0.000007755363    -0.000003668479    -0.000000704595
      17       -0.000010045309    -0.000002337387     0.000001746503
      18        0.000014567936     0.000010863209     0.000007204740
      19       -0.000009310235    -0.000017253254    -0.000005142586
      20        0.000007680732     0.000019840343    -0.000007225392
      21        0.000001017782    -0.000000699224    -0.000002245769
      22       -0.000007485416    -0.000001618218    -0.000009016348
      23       -0.000005821237     0.000012184709    -0.000003558069
      24        0.000018255397    -0.000011015561     0.000011620044
      25       -0.000022901077    -0.000002237070    -0.000005687623
      26        0.000035787102     0.000007945025    -0.000021591795
      27       -0.000045244812    -0.000038747437     0.000006938226
      28        0.000023051643    -0.000035985282    -0.000060127664
      29        0.000001401175     0.000039087951    -0.000050275356
      30        0.000036584271    -0.000009186815     0.000179825142
      31        0.000019239650    -0.000032079895    -0.000069540405
      32        0.000012547070     0.000073561007    -0.000007982643
      33        0.000018583733    -0.000027820461     0.000003005370
      34       -0.000014602721     0.000021028564    -0.000002935308
      35        0.000021924383    -0.000003352169     0.000013458762
      36       -0.000014033375    -0.000000513389     0.000003925912
      37        0.000007335120     0.000007933960    -0.000006269632
      38       -0.000000655072    -0.000000635587    -0.000003669412
      39       -0.000010850511    -0.000011613666     0.000010455692
      40        0.000005046970     0.000021744770     0.000000502762
      41        0.000003756799    -0.000012858631    -0.000005693353
      42       -0.000000708351     0.000006327173     0.000003530605
      43       -0.000012345221    -0.000000116653    -0.000000910182
      44        0.000024357281     0.000009631481     0.000009562751
      45       -0.000020698588    -0.000061121349     0.000034035154
      46        0.000021243986     0.000063910433     0.000017090308
      47        0.000006495599    -0.000014588314     0.000003094418
      48       -0.000000790822     0.000003977749    -0.000005503566
      49       -0.000005771824    -0.000006675359    -0.000002999105
      50        0.000010569312     0.000009222874    -0.000006831215
      51        0.000001411246     0.000003312157     0.000000062803
      52        0.000001649188    -0.000002088275     0.000001626449
      53       -0.000005493233    -0.000000578125     0.000001159993
      54        0.000004267389    -0.000004900519    -0.000003827374
      55       -0.000010957464    -0.000005318869    -0.000000087409
      56        0.000002840499     0.000005772803    -0.000003569587
      57        0.000005739365     0.000004252292    -0.000003249106
      58       -0.000000770898     0.000002974602     0.000000817201
      59        0.000003345641     0.000001337516     0.000001082067
      60       -0.000000400268    -0.000001351152     0.000000531642
      61        0.000001665210     0.000003313213    -0.000003156478
      62       -0.000000361487    -0.000002211132    -0.000001585120
      63        0.000000650960     0.000002252044    -0.000003973904
      64        0.000002320010     0.000003216112    -0.000003897701
      65       -0.000000746962    -0.000002760733    -0.000003746854
      66       -0.000002793718     0.000005670828    -0.000004636853
      67        0.000000504437    -0.000004642856     0.000000524833
      68       -0.000000350829     0.000000661972    -0.000001186417
      69        0.000002698747     0.000002930991    -0.000000065463
      70       -0.000001937930    -0.000003326691     0.000002561391
      71        0.000001117883     0.000002669211     0.000000248512
      72        0.000001448913     0.000002047004    -0.000001374502
      73        0.000001726330    -0.000001938285     0.000000568258

  **** Optimization is complete! (in 13 steps) ****
    Final optimized geometry and variables:
    Molecular point group: c1

    Geometry (in Angstrom), charge = 0, multiplicity = 1:

    C            3.512910143263    -0.157388004620    -2.510264206969
    C            3.193616886318     1.176177001690    -2.620862086010
    C            2.702188279106     1.892228273760    -1.472721934713
    C            1.611826939816     2.818681931312    -1.545917073979
    C            0.957439008551     3.181222800380    -2.772034352474
    C           -0.406932812031     3.333556654270    -2.795223421852
    C           -1.204404068894     3.046280562946    -1.621957810872
    C           -2.412186395682     2.309857152190    -1.830171023452
    C           -2.995971263798     1.946864466181    -3.092764858468
    C           -3.580847354078     0.687769829289    -2.989927502184
    C           -3.400148341448     0.181331525344    -1.656445973850
    C           -3.166891093530    -1.178018724599    -1.278661383902
    C           -2.950815001309    -2.122421624413    -2.353509551668
    C           -1.952427940907    -3.061640513258    -2.272726361107
    C           -1.172919576173    -3.169934386023    -1.071921602324
    C            0.240807585084    -3.404447248312    -1.062719137592
    C            1.030141977007    -3.460853030223    -2.265331150048
    C            2.257397800029    -2.840391056353    -2.304503724873
    C            2.753598247050    -2.135119243960    -1.148756699743
    C            3.355264058004    -0.838322761399    -1.249550601172
    C            3.376550722911    -0.033763341789    -0.065813249562
    C            3.041404083410     1.361997844657    -0.185625654549
    C            2.693819658280     2.097837012906     0.992428054269
    C            1.605381074176     3.023080237190     0.907548952165
    C            0.903037043166     3.117783136587    -0.337433566425
    C           -0.542476459968     3.210681637747    -0.348156946461
    C           -1.209512109208     3.257896681797     0.933170274126
    C           -2.415692422185     2.562346676646     1.256155446162
    C           -2.837237441150     1.395341949214     0.493823480070
    C           -2.836550343970     1.282731497716    -0.888971699906
    C           -3.397412819420     0.431201508399     1.429763798473
    C           -3.159388755634    -0.970375476948     1.276988882009
    C           -2.777889039100    -1.617748768824     0.042294208224
    C           -1.774762447524    -2.659793834940     0.123970317800
    C           -1.166197339816    -2.972302442275     1.383690442096
    C            0.242431214564    -3.218878042365     1.403858164176
    C            0.946261599750    -3.171491546422     0.160081799200
    C            2.232574543289    -2.526429883465     0.126997501334
    C            2.755229485293    -1.955310652120     1.339478172112
    C            3.340154503201    -0.647941925637     1.235259934362
    C            3.510895561720     0.248064850083     2.356326030943
    C            3.190145622195     1.581165013960     2.239808779019
    C            0.946533069744     3.583203931428     2.054503989128
    C           -0.417452593128     3.737427782011     2.046162096658
    C           -3.000105304346     2.407591657148     2.560989023722
    C           -3.580319727212     1.146777608788     2.663767397988
    C           -2.932544377373    -1.725754917878     2.490766891693
    C           -1.934724790165    -2.666324778943     2.557239386356
    C            1.051637716054    -3.158283623445     2.590698978418
    C            2.295948200202    -2.559207958915     2.586007209989
    H            3.737018054819    -0.731280434146    -3.414762389703
    H            3.166722449699     1.642518801862    -3.610661411930
    H            1.521572802720     3.217482743033    -3.709507055819
    H           -0.913401111474     3.472664799801    -3.754443758101
    H           -2.927614581030     2.526613057375    -4.015351584984
    H           -4.034555885664     0.144092490462    -3.820870463021
    H           -3.448248807119    -1.951519838131    -3.312275492754
    H           -1.678751038749    -3.638077478736    -3.162312250258
    H            0.596107177691    -3.854403914057    -3.189758599452
    H            2.781165447755    -2.750495550193    -3.261199546443
    H            3.768949540237    -0.145258229923     3.340254336745
    H            3.179109463176     2.208729545097     3.136648798492
    H            1.507649097506     3.773848888474     2.974989405007
    H           -0.928448894816     4.034571341460     2.966238990141
    H           -2.934681476813     3.129953356622     3.376961754385
    H           -4.033703529926     0.743659866955     3.571441833636
    H           -3.420779787042    -1.397905791279     3.412711363739
    H           -1.648926160817    -3.085399594865     3.527428153923
    H            0.635772492823    -3.492748417776     3.548583617154
    C            3.078378588883    -2.470970213648     3.878319097374
    H            4.164820200141    -2.420137643421     3.698831611797
    H            2.879923187844    -3.361315013667     4.498476524599
    H            2.795845308623    -1.589838326477     4.484046320656

*** Psi4 exiting successfully. Buy a developer a beer!
