                               Psi4 1.3a2.dev49

  ==> Input File <==

--------------------------------------------------------------------------
import psi4
psi4.set_memory(3e9)
psi4.set_options({'geom_maxiter':100})
cnt=psi4.geometry("""
0 1
C          5.95114        4.40209        0.00000
C          5.65503        5.79189        0.00000
C          5.29997        6.40620        1.23118
C          4.24350        7.35653        1.23118
C          3.59517        7.64481        0.00000
C          2.18188        7.79266        0.00000
C          1.48792        7.64481        1.23118
C          0.25764        6.93371        1.23118
C         -0.21687        6.40620        0.00000
C         -0.79422        5.10777        0.00000
C         -0.86805        4.40209        1.23118
C         -0.57194        3.01228        1.23118
C         -0.21687        2.39798        0.00000
C          0.83959        1.44765        0.00000
C          1.48792        1.15937        1.23118
C          2.90121        1.01152        1.23118
C          3.59517        1.15937        0.00000
C          4.82545        1.87046        0.00000
C          5.29997        2.39798        1.23118
C          5.87732        3.69641        1.23118
C          5.95114        4.40209        2.46236
C          5.65503        5.79189        2.46236
C          5.29997        6.40620        3.69354
C          4.24350        7.35653        3.69354
C          3.59517        7.64481        2.46236
C          2.18188        7.79266        2.46236
C          1.48792        7.64481        3.69354
C          0.25764        6.93371        3.69354
C         -0.21687        6.40620        2.46236
C         -0.79422        5.10777        2.46236
C         -0.86805        4.40209        3.69354
C         -0.57194        3.01228        3.69354
C         -0.21687        2.39798        2.46236
C          0.83959        1.44765        2.46236
C          1.48792        1.15937        3.69354
C          2.90121        1.01152        3.69354
C          3.59517        1.15937        2.46236
C          4.82545        1.87046        2.46236
C          5.29997        2.39798        3.69354
C          5.87732        3.69641        3.69354
C          5.95114        4.40209        4.92472
C          5.65503        5.79189        4.92472
C          3.59517        7.64481        4.92472
C          2.18188        7.79266        4.92472
C         -0.21687        6.40620        4.92472
C         -0.79422        5.10777        4.92472
C         -0.21687        2.39798        4.92472
C          0.83959        1.44765        4.92472
C          3.59517        1.15937        4.92472
C          4.82545        1.87046        4.92472
H          6.21331        3.91727       -0.87250
H          5.69681        6.34147       -0.87250
H          4.13727        7.74432       -0.87250
H          1.67212        8.00222       -0.87250
H         -0.14400        6.95252       -0.87250
H         -1.15105        4.68772       -0.87250
H         -0.71393        2.63611       -0.87250
H          1.12883        0.97848       -0.87250
H          3.21510        0.76022       -0.87250
H          5.36103        2.00056       -0.87250
H          6.21331        3.91727        5.79721
H          5.69681        6.34147        5.79721
H          4.13727        7.74432        5.79721
H          1.67212        8.00222        5.79721
H         -0.14400        6.95252        5.79721
H         -1.15105        4.68772        5.79721
H         -0.71393        2.63611        5.79721
H          1.12883        0.97848        5.79721
H          3.21510        0.76022        5.79721
C          5.36103        2.00056        5.79721
H          6.25082        2.55750        5.58984
H          5.62421        1.04485        6.20003
H          4.76338        2.53421        6.50639
""")

psi4.optimize('pbe/6-31G(D)',molecule=cnt)
--------------------------------------------------------------------------

    Molecular point group: c1
  Charge       = 0
  Multiplicity = 1
  Basis Set: 6-31G(D)
    Blend: 6-31G(D)
  Basis Set: (6-31G(D) AUX)
    Blend: CC-PVDZ-JKFIT
  @DF-RKS Final Energy: -1953.77662393316609
    Total Energy =                      -1953.7766239331660927
    Molecular point group: c1
  Basis Set: 6-31G(D)
    Blend: 6-31G(D)
  Basis Set: (6-31G(D) AUX)
    Blend: CC-PVDZ-JKFIT
  Basis Set: 6-31G(D)
    Blend: 6-31G(D)
  Basis Set: (6-31G(D) AUX)
    Blend: CC-PVDZ-JKFIT
  @DF-RKS Final Energy: -1954.09911192434492
    Total Energy =                      -1954.0991119243449248
  Basis Set: 6-31G(D)
    Blend: 6-31G(D)
  Basis Set: (6-31G(D) AUX)
    Blend: CC-PVDZ-JKFIT
  Basis Set: 6-31G(D)
    Blend: 6-31G(D)
  @DF-RKS Final Energy: -1954.19162356316156
    Total Energy =                      -1954.1916235631615564
  @DF-RKS Final Energy: -1954.22735240717861
    Total Energy =                      -1954.2273524071786142
  @DF-RKS Final Energy: -1954.23963332511903
    Total Energy =                      -1954.2396333251190299
  @DF-RKS Final Energy: -1954.24406879241133
    Total Energy =                      -1954.2440687924113263
  @DF-RKS Final Energy: -1954.24521434749431
    Total Energy =                      -1954.2452143474943114
  @DF-RKS Final Energy: -1954.24540676783954
    Total Energy =                      -1954.2454067678395404
  @DF-RKS Final Energy: -1954.24546086471673
    Total Energy =                      -1954.2454608647167333
  @DF-RKS Final Energy: -1954.24555364749767
    Total Energy =                      -1954.2455536474976725
  @DF-RKS Final Energy: -1954.24570665597935
    Total Energy =                      -1954.2457066559793475
  @DF-RKS Final Energy: -1954.24582618550926
    Total Energy =                      -1954.2458261855092587
  @DF-RKS Final Energy: -1954.24599356326371
    Total Energy =                      -1954.2459935632637098
  @DF-RKS Final Energy: -1954.24613409426729
    Total Energy =                      -1954.2461340942672905
  @DF-RKS Final Energy: -1954.24614664741330
    Total Energy =                      -1954.2461466474132976
  Basis Set: (6-31G(D) AUX)
    Blend: CC-PVDZ-JKFIT
  Basis Set: 6-31G(D)
    Blend: 6-31G(D)
  Basis Set: (6-31G(D) AUX)
    Blend: CC-PVDZ-JKFIT
  @DF-RKS Final Energy: -1954.24615248956934
    Total Energy =                      -1954.2461524895693401
  Basis Set: 6-31G(D)
    Blend: 6-31G(D)
  Basis Set: (6-31G(D) AUX)
    Blend: CC-PVDZ-JKFIT
  Charge       = 0
  Multiplicity = 1
  Basis Set: 6-31G(D)
    Blend: 6-31G(D)
  Basis Set: (6-31G(D) AUX)
    Blend: CC-PVDZ-JKFIT

    Orbital Energies [Eh]
    ---------------------

    Doubly Occupied:

       1A     -9.919491     2A     -9.919216     3A     -9.918861
       4A     -9.917625     5A     -9.917607     6A     -9.917581
       7A     -9.917569     8A     -9.917412     9A     -9.917367
      10A     -9.917357    11A     -9.917328    12A     -9.917293
      13A     -9.917258    14A     -9.917121    15A     -9.917120
      16A     -9.917079    17A     -9.917056    18A     -9.916725
      19A     -9.916605    20A     -9.916441    21A     -9.916439
      22A     -9.916335    23A     -9.916247    24A     -9.916162
      25A     -9.915987    26A     -9.915925    27A     -9.915915
      28A     -9.915840    29A     -9.915716    30A     -9.915559
      31A     -9.914371    32A     -9.909095    33A     -9.908975
      34A     -9.908952    35A     -9.908918    36A     -9.908915
      37A     -9.908847    38A     -9.908630    39A     -9.908540
      40A     -9.908510    41A     -9.908487    42A     -9.908451
      43A     -9.908449    44A     -9.908440    45A     -9.908369
      46A     -9.908036    47A     -9.907975    48A     -9.907647
      49A     -9.906907    50A     -9.904044    51A     -9.903466
      52A     -0.825004    53A     -0.815895    54A     -0.815474
      55A     -0.788734    56A     -0.788310    57A     -0.768113
      58A     -0.760540    59A     -0.758812    60A     -0.744788
      61A     -0.744259    62A     -0.737833    63A     -0.735689
      64A     -0.700200    65A     -0.691632    66A     -0.690286
      67A     -0.689092    68A     -0.687700    69A     -0.677742
      70A     -0.673389    71A     -0.668206    72A     -0.664652
      73A     -0.647188    74A     -0.643174    75A     -0.634079
      76A     -0.626146    77A     -0.604625    78A     -0.590593
      79A     -0.583067    80A     -0.574615    81A     -0.571941
      82A     -0.567164    83A     -0.561135    84A     -0.546655
      85A     -0.543486    86A     -0.538817    87A     -0.534818
      88A     -0.532013    89A     -0.530298    90A     -0.505095
      91A     -0.487551    92A     -0.486651    93A     -0.482373
      94A     -0.464724    95A     -0.463351    96A     -0.462266
      97A     -0.461882    98A     -0.459901    99A     -0.444762
     100A     -0.443023   101A     -0.438809   102A     -0.435323
     103A     -0.421005   104A     -0.420479   105A     -0.418490
     106A     -0.412669   107A     -0.396958   108A     -0.396449
     109A     -0.394976   110A     -0.394261   111A     -0.391310
     112A     -0.390043   113A     -0.388573   114A     -0.385894
     115A     -0.383921   116A     -0.380650   117A     -0.376671
     118A     -0.374148   119A     -0.371995   120A     -0.365009
     121A     -0.363393   122A     -0.359779   123A     -0.356614
     124A     -0.353995   125A     -0.352630   126A     -0.349062
     127A     -0.347923   128A     -0.347294   129A     -0.345748
     130A     -0.345078   131A     -0.341112   132A     -0.338540
     133A     -0.329078   134A     -0.324864   135A     -0.314031
     136A     -0.313603   137A     -0.306899   138A     -0.306637
     139A     -0.304174   140A     -0.297319   141A     -0.293392
     142A     -0.283839   143A     -0.282967   144A     -0.277645
     145A     -0.277091   146A     -0.272280   147A     -0.272059
     148A     -0.271524   149A     -0.270084   150A     -0.267506
     151A     -0.256339   152A     -0.232258   153A     -0.229050
     154A     -0.228749   155A     -0.228475   156A     -0.225364
     157A     -0.214637   158A     -0.213316   159A     -0.211868
     160A     -0.211106   161A     -0.179368   162A     -0.178381
     163A     -0.167355   164A     -0.143654

  @DF-RKS Final Energy: -1954.24615369029266

   => Energetics <=

    Nuclear Repulsion Energy =           6332.3525118230127191
    One-Electron Energy =              -15258.6225709541831748
    Two-Electron Energy =                7254.2951645715893392
    DFT Exchange-Correlation Energy =    -282.2712591307124512
    Empirical Dispersion Energy =           0.0000000000000000
    VV10 Nonlocal Energy =                  0.0000000000000000
    Total Energy =                      -1954.2461536902926582

  Dipole Moment: [D]
     X:     0.4516      Y:    -0.3022      Z:     0.3749     Total:     0.6601

    Molecular point group: c1
  Basis Set: 6-31G(D)
    Blend: 6-31G(D)
  Basis Set: (6-31G(D) AUX)
    Blend: CC-PVDZ-JKFIT

  -Total Gradient:
     Atom            X                  Y                   Z
    ------   -----------------  -----------------  -----------------
       1       -0.000001430984    -0.000011877961     0.000010166807
       2       -0.000002054403     0.000010905118     0.000015150720
       3        0.000001918884    -0.000009184702    -0.000003506074
       4       -0.000005052328     0.000002067251    -0.000013581222
       5        0.000008369779    -0.000001289047     0.000013466085
       6       -0.000007553426    -0.000001062266     0.000013394798
       7        0.000008658322    -0.000000595945    -0.000008410370
       8       -0.000003275780    -0.000004981724    -0.000010476432
       9        0.000005595105     0.000007159130     0.000012588081
      10       -0.000001653766    -0.000007434072     0.000012572014
      11       -0.000001522316     0.000005253228    -0.000013156394
      12        0.000006192745    -0.000007726877     0.000001516187
      13       -0.000004216620     0.000006700561     0.000006909075
      14        0.000007015677    -0.000006049560     0.000009412344
      15       -0.000005612275     0.000007598414     0.000003926093
      16        0.000005010053    -0.000005832526    -0.000018347942
      17       -0.000010446189    -0.000003764071     0.000011825749
      18        0.000002785727     0.000009343003     0.000011783466
      19       -0.000007026619    -0.000023872554     0.000016312554
      20        0.000014567232     0.000029361645    -0.000000550174
      21       -0.000002610384     0.000012900398    -0.000016375043
      22        0.000003379087    -0.000001870676     0.000015483110
      23        0.000006250603     0.000002636160    -0.000007018840
      24       -0.000014379611     0.000001149279     0.000000786521
      25       -0.000005356142     0.000004518346    -0.000001147550
      26        0.000002604150     0.000002189883     0.000006530829
      27        0.000030290915     0.000013207508     0.000004164451
      28       -0.000020795740    -0.000016186291     0.000010280660
      29       -0.000002802362     0.000000061986     0.000003664022
      30        0.000002319178     0.000005767658     0.000002512053
      31        0.000000038197     0.000022215630     0.000007707863
      32        0.000006701290    -0.000018758290     0.000005218021
      33       -0.000003569191     0.000001409508    -0.000000988821
      34        0.000001748162    -0.000003843996     0.000001576302
      35       -0.000015087974     0.000009209640     0.000007319409
      36        0.000020904038    -0.000004302158     0.000026417769
      37        0.000020846914     0.000013067859     0.000005228006
      38       -0.000030371055    -0.000012634219    -0.000045811083
      39       -0.000037858601     0.000022433606     0.000058813137
      40       -0.000001154004    -0.000024246709    -0.000005661814
      41        0.000005576443    -0.000039750914     0.000018473689
      42        0.000002276973    -0.000004820297    -0.000000334165
      43        0.000015830143    -0.000004989529    -0.000012594107
      44       -0.000023214720    -0.000002292837    -0.000014682969
      45        0.000007776459     0.000012730234    -0.000017221905
      46       -0.000005684587    -0.000016544124    -0.000016982377
      47       -0.000007507308     0.000010570157    -0.000015144238
      48        0.000009231994    -0.000009493422    -0.000013069935
      49       -0.000054294877     0.000016396282    -0.000022920430
      50        0.000122866165    -0.000027108671    -0.000061598775
      51        0.000001578090    -0.000000430996    -0.000007434017
      52        0.000000116873    -0.000000530601    -0.000008213335
      53       -0.000000384061     0.000001074870    -0.000007467683
      54        0.000001036352     0.000000341781    -0.000007883371
      55       -0.000000443441    -0.000000292760    -0.000008079827
      56        0.000000065525     0.000000507613    -0.000008210848
      57        0.000000426374     0.000000216584    -0.000006938339
      58        0.000000042103    -0.000000067285    -0.000006996382
      59        0.000004355690    -0.000000553773    -0.000007620312
      60        0.000001680178    -0.000001213627    -0.000007016678
      61       -0.000002053348     0.000019225679    -0.000004047283
      62        0.000001658195    -0.000000387638     0.000002331044
      63       -0.000003929397     0.000002727781     0.000004989919
      64        0.000002376296     0.000000709612     0.000006658755
      65       -0.000002245023    -0.000000827925     0.000006248903
      66        0.000000461446     0.000002678855     0.000007196396
      67       -0.000000837722     0.000001047775     0.000006656095
      68       -0.000003216700     0.000001200444     0.000005135186
      69       -0.000001978103    -0.000001658789     0.000009834281
      70       -0.000016724858    -0.000005190010     0.000048265896
      71       -0.000015829683     0.000012329480     0.000002853669
      72       -0.000000194128     0.000001663385    -0.000025290249
      73       -0.000003870542     0.000021826691    -0.000004710922

  **** Optimization is complete! (in 17 steps) ****
    Final optimized geometry and variables:
    Molecular point group: c1

    Geometry (in Angstrom), charge = 0, multiplicity = 1:

    C            3.477323519064    -0.113742350434    -2.537487365721
    C            3.194161953081     1.226464787973    -2.629083966116
    C            2.734228048871     1.948556291910    -1.468170323343
    C            1.685107754432     2.920389259203    -1.531043583390
    C            1.000290411026     3.241748340939    -2.760379838703
    C           -0.361816755722     3.415445344662    -2.766342811109
    C           -1.116023337378     3.277327997250    -1.543122643107
    C           -2.370497605394     2.590690181046    -1.489759251057
    C           -2.973372814525     1.988817041003    -2.655509287765
    C           -3.549631321309     0.745868004044    -2.568163571625
    C           -3.553509238977     0.036084798893    -1.310775684496
    C           -3.266262243089    -1.363013843221    -1.220089095910
    C           -2.957437468266    -2.164643351398    -2.379916258020
    C           -1.945079754103    -3.090992336248    -2.328134445060
    C           -1.187175846768    -3.270570649346    -1.113547715643
    C            0.233873237575    -3.446034568671    -1.114473651079
    C            1.016966783074    -3.451396056203    -2.326065016252
    C            2.223996555011    -2.798479968506    -2.363560297485
    C            2.710659941562    -2.101351850941    -1.196221991091
    C            3.309947318032    -0.805363445790    -1.281611351153
    C            3.353071584306    -0.016516044486    -0.088561724526
    C            3.061040496734     1.393910101602    -0.187143244891
    C            2.742246253017     2.118911234509     1.006152985911
    C            1.695194666853     3.090782773080     0.945391119832
    C            1.029691525892     3.283096819324    -0.309217311372
    C           -0.401932294914     3.467108277087    -0.315134244994
    C           -1.104207331647     3.447255862675     0.934290133981
    C           -2.357146203205     2.758577894507     0.987395585920
    C           -2.830630147358     2.133052015333    -0.211936055038
    C           -3.434267353185     0.824490842253    -0.120221967553
    C           -3.532914625878     0.200958778978     1.166524091193
    C           -3.240725704023    -1.196886110304     1.257941674158
    C           -2.875054359857    -1.886999920466     0.055626850010
    C           -1.812290070640    -2.861951406327     0.109853749073
    C           -1.163325015511    -3.107500737898     1.364856476805
    C            0.252629715711    -3.297761948229     1.360936971221
    C            0.939279604875    -3.212811000990     0.109195651722
    C            2.206982358182    -2.525091570738     0.075506474768
    C            2.729970066293    -1.959913965235     1.290592023191
    C            3.310659528047    -0.652378705124     1.201760856088
    C            3.505197894971     0.220456518709     2.339717502274
    C            3.221427391219     1.560599741362     2.245797467133
    C            1.022288942446     3.577023909498     2.126066043648
    C           -0.339458632116     3.751376593127     2.120502500092
    C           -2.944998388830     2.317677551597     2.230546076057
    C           -3.516130613641     1.072518501824     2.317811755054
    C           -2.903001467787    -1.833404497371     2.508985856877
    C           -1.891674587220    -2.760636377824     2.560997977025
    C            1.074077542609    -3.224136855467     2.542427126434
    C            2.299963540178    -2.595063256115     2.535422348999
    H            3.695032245563    -0.681555247958    -3.447269102489
    H            3.190340976732     1.710594349939    -3.610540848018
    H            1.542636894805     3.211964992304    -3.710451745618
    H           -0.886335812537     3.521206697982    -3.720981696784
    H           -2.851534648105     2.458277342612    -3.636556350755
    H           -3.880137102952     0.240460910318    -3.480842069867
    H           -3.433345271230    -1.940820822203    -3.339603771633
    H           -1.628153512780    -3.593413393209    -3.247333545688
    H            0.593212722840    -3.855350796039    -3.250629973531
    H            2.746531174483    -2.688242768363    -3.318706917939
    H            3.766713523115    -0.195215454568     3.313262498721
    H            3.245276252620     2.177519929003     3.149607089044
    H            1.574155238782     3.675514541428     3.065990367276
    H           -0.855800395466     3.987215494448     3.056132281027
    H           -2.814771617917     2.915436389101     3.137959826871
    H           -3.834820777029     0.693473421469     3.293744443904
    H           -3.354021233179    -1.476880240346     3.440115422435
    H           -1.546821957815    -3.128487674380     3.532425263699
    H            0.683976801219    -3.602260541713     3.494863609434
    C            3.103793898201    -2.526163280027     3.816151766323
    H            4.186924460767    -2.467531768928     3.619173676606
    H            2.919643969864    -3.428693652640     4.422876521906
    H            2.829137338091    -1.657562908215     4.443035317726

*** Psi4 exiting successfully. Buy a developer a beer!
